; GROMACS MDP file for npt
; EC/DMC/LiPF6 electrolyte simulation

integrator                = md
nsteps                    = 1000000
dt                        = 0.001
tcoupl                    = v-rescale
ref_t                     = 298.15
tau_t                     = 0.1
pcoupl                    = Parrinello-Rahman
ref_p                     = 1.0
tau_p                     = 2.0
compressibility           = 4.5e-5
cutoff-scheme             = Verlet
nstlist                   = 20
ns_type                   = grid
coulombtype               = PME
rcoulomb                  = 1.2
rvdw                      = 1.2
pbc                       = xyz
DispCorr                  = EnerPres
constraints               = h-bonds
constraint_algorithm      = LINCS
