; TI window: lambda = 0.150 (elec)
integrator      = sd
dt              = 0.002
nsteps          = 2500000     ; 5 ns per window
nstxout-compressed = 500
nstenergy       = 100
nstlog          = 500
nstdhdl         = 100         ; dH/dlambda output frequency

nstlist         = 20
cutoff-scheme   = Verlet
rlist           = 1.2

coulombtype     = PME
rcoulomb        = 1.2
pme_order       = 6
fourierspacing  = 0.10

vdwtype         = Cut-off
rvdw            = 1.2
DispCorr        = EnerPres

; Soft-core parameters
sc-alpha        = 0.5
sc-power        = 1
sc-sigma        = 0.3
sc-coul         = yes

; Free energy settings
free-energy     = yes
couple-moltype  = LI
couple-lambda0  = none
couple-lambda1  = none
couple-intramol = no

init-lambda-state = 3

; Electrostatic decoupling
coul-lambdas    = 0.0000 0.0500 0.1000 0.1500 0.2000 0.2500 0.3000 0.3500 0.4000 0.4500 0.5000 0.5500 0.6000 0.6500 0.7000 0.7500 0.8000 0.8500 0.9000 0.9500 1.0000
vdw-lambdas     = 0.0000 0.0000 0.0000 0.0000 0.0000 0.0000 0.0000 0.0000 0.0000 0.0000 0.0000 0.0000 0.0000 0.0000 0.0000 0.0000 0.0000 0.0000 0.0000 0.0000 0.0000

; Temperature
tc-grps         = System
tau_t           = 1.0
ref_t           = 298.15

; Pressure
pcoupl          = Parrinello-Rahman
pcoupltype      = isotropic
tau_p           = 5.0
ref_p           = 1.0
compressibility = 4.5e-5

constraints     = h-bonds
constraint_algorithm = LINCS
pbc             = xyz

gen_vel         = no
continuation    = yes
